 Gaussian 09, Revision D.01,
 Gaussian 09:  AM64L-G09RevD.01 24-Apr-2013

 ------------------------------
 #B3LYP/6-31g* opt freq=noraman
 ------------------------------

 -------
 lig opt
 -------
 Symbolic Z-matrix:
 Charge =  0 Multiplicity = 1

 SCF Done:  E(RB3LYP) =  -425.394401202     A.U. after   14 cycles
 SCF Done:  E(RB3LYP) =  -425.407917426     A.U. after   13 cycles
 SCF Done:  E(RB3LYP) =  -425.409350703     A.U. after   12 cycles
 SCF Done:  E(RB3LYP) =  -425.409465654     A.U. after   11 cycles
 SCF Done:  E(RB3LYP) =  -425.409477236     A.U. after    9 cycles
 SCF Done:  E(RB3LYP) =  -425.409481915     A.U. after    9 cycles
 SCF Done:  E(RB3LYP) =  -425.409483539     A.U. after    8 cycles
 SCF Done:  E(RB3LYP) =  -425.409483942     A.U. after    7 cycles
 SCF Done:  E(RB3LYP) =  -425.409484157     A.U. after    7 cycles
 SCF Done:  E(RB3LYP) =  -425.409484186     A.U. after    7 cycles
 Optimization completed.
    -- Stationary point found.

 1\1\GINC-Q16COPT056\FOpt\RB3LYP\6-31G(d)\C9H12O1\HLIU8\27-Jun-2016\0\\
 #B3LYP/6-31g* opt freq=noraman\\lig opt\\0,1\C,24.2860518605,-23.94839
 33108,0.045568526\C,21.4649915601,-27.2619570916,-4.2550806875\C,21.91
 40039067,-26.7422806942,-5.4709703284\C,22.5723188327,-25.5158921926,-
 5.5066566625\C,22.7902020198,-24.8049898161,-4.3230515057\C,21.6850494
 427,-26.5411864454,-3.0820071956\C,22.3477437432,-25.3073040393,-3.084
 4844151\C,22.6073437821,-24.5602056306,-1.7922316203\C,24.0483016285,-
 24.7133977375,-1.2595628579\O,23.4511568542,-23.6082221105,-4.44257135

 Normal termination of Gaussian 09 at Mon Jun 27 12:25:09 2016.

 --------------------------------------------------------------------
 #N Geom=AllCheck Guess=TCheck SCRF=Check GenChk RB3LYP/6-31G(d) Freq
 --------------------------------------------------------------------

 Structure from the checkpoint file:  "lig-opt.chk"
 -------
 lig opt
 -------
 Charge =  0 Multiplicity = 1

                         Standard orientation:
 ---------------------------------------------------------------------
 Center     Atomic      Atomic             Coordinates (Angstroms)
 Number     Number       Type             X           Y           Z
 ---------------------------------------------------------------------
      1          6           0        3.758649   -0.263623   -0.243076
      2          6           0       -2.244297   -1.436772   -0.094679
      3          6           0       -2.863718   -0.205102   -0.316876
      4          6           0       -2.130960    0.974460   -0.214993
      5          6           0       -0.771015    0.926967    0.104491
      6          6           0       -0.888087   -1.470358    0.227193
      7          6           0       -0.123075   -0.301925    0.332820
      8          6           0        1.357489   -0.366335    0.647857
      9          6           0        2.267980   -0.196443   -0.587338
     10          8           0       -0.119118    2.132277    0.179710
     11          1           0        4.378878   -0.143836   -1.138262
     12          1           0        4.041812    0.524878    0.465668
     13          1           0        4.016650   -1.226197    0.215192
     14          1           0       -2.810786   -2.360592   -0.167882
     15          1           0       -3.920399   -0.159819   -0.566798
     16          1           0       -2.590417    1.944478   -0.378329
     17          1           0       -0.400438   -2.426720    0.405481
     18          1           0        1.578121   -1.330809    1.121567
     19          1           0        1.629937    0.389369    1.404137
     20          1           0        2.015362   -0.976909   -1.315963
     21          1           0        2.042709    0.758153   -1.082596
     22          1           0        0.793723    1.984580    0.467716
 ---------------------------------------------------------------------

 SCF Done:  E(RB3LYP) =  -425.409484186     A.U. after    1 cycles

 The electronic state is 1-A.
 Alpha  occ. eigenvalues --  -19.17392 -10.24226 -10.19709 -10.19081 -10.19015
 Alpha  occ. eigenvalues --  -10.18507 -10.18438 -10.18129 -10.17848 -10.17772
 Alpha  occ. eigenvalues --   -1.05360  -0.84639  -0.79890  -0.74584  -0.73170
 Alpha  occ. eigenvalues --   -0.68122  -0.61119  -0.59770  -0.58863  -0.53310
 Alpha  occ. eigenvalues --   -0.49150  -0.46839  -0.45060  -0.43453  -0.42597
 Alpha  occ. eigenvalues --   -0.41806  -0.39365  -0.38777  -0.38233  -0.37226
 Alpha  occ. eigenvalues --   -0.35095  -0.34548  -0.33608  -0.32604  -0.32334
 Alpha  occ. eigenvalues --   -0.24016  -0.21390
 Alpha virt. eigenvalues --    0.00450   0.01809   0.05579   0.09945   0.11293
 Alpha virt. eigenvalues --    0.12747   0.13969   0.15789   0.16369   0.16649
 Alpha virt. eigenvalues --    0.17155   0.18063   0.18611   0.19009   0.20171

 Mulliken charges:
               1
     1  C   -0.440830
     2  C   -0.130655
     3  C   -0.137855
     4  C   -0.155168
     5  C    0.272097
     6  C   -0.198566
     7  C    0.151953
     8  C   -0.385891
     9  C   -0.248722
    10  O   -0.650473
    11  H    0.149728
    12  H    0.139463
    13  H    0.146179
    14  H    0.123227
    15  H    0.127869
    16  H    0.136590
    17  H    0.120766
    18  H    0.151531
    19  H    0.129777
    20  H    0.148228
    21  H    0.137366
    22  H    0.413384
 Sum of Mulliken charges =   0.00000

 Dipole moment (field-independent basis, Debye):
    X=              1.4774    Y=             -0.8057    Z=              0.3023  Tot=              1.7097
 Quadrupole moment (field-independent basis, Debye-Ang):
   XX=            -55.3969   YY=            -60.1234   ZZ=            -62.4535
   XY=              1.7723   XZ=              1.8556   YZ=              0.3497

  Exact polarizability: 125.607   3.177 100.561  10.226  -2.139  54.748
 Approx polarizability: 172.376   6.639 172.732  20.466  -4.161  81.713

                      1                      2                      3
                      A                      A                      A
 Frequencies --     65.2411                92.3638                97.4971
 Red. masses --      3.4706                 2.3401                 2.1681
 Frc consts  --      0.0087                 0.0118                 0.0121
 IR Inten    --      0.2973                 0.0811                 0.8591

                      4                      5                      6
                      A                      A                      A
 Frequencies --    210.9858               245.7233               292.5564
 Red. masses --      4.4482                 1.1316                 2.9317
 Frc consts  --      0.1167                 0.0403                 0.1478
 IR Inten    --      0.2617                 0.2046                 2.6893

                      7                      8                      9
                      A                      A                      A
 Frequencies --    309.7408               329.9778               343.1976
 Red. masses --      2.1137                 1.5066                 2.5496
 Frc consts  --      0.1195                 0.0967                 0.1769
 IR Inten    --     32.2202                66.9571                 6.7991

                     10                     11                     12
                      A                      A                      A
 Frequencies --    449.0093               482.0059               544.0189
 Red. masses --      3.4896                 3.2970                 4.2307
 Frc consts  --      0.4145                 0.4513                 0.7377
 IR Inten    --      7.4994                 4.7765                 0.5597

                     13                     14                     15
                      A                      A                      A
 Frequencies --    565.9542               617.5003               732.5374
 Red. masses --      5.0829                 5.4495                 4.4195
 Frc consts  --      0.9592                 1.2243                 1.3973
 IR Inten    --      0.5646                 1.7957                 0.8145

                     16                     17                     18
                      A                      A                      A
 Frequencies --    749.3244               767.3763               782.6225
 Red. masses --      1.1367                 1.3623                 3.1395
 Frc consts  --      0.3760                 0.4727                 1.1329
 IR Inten    --      0.2140                44.0804                10.9328

                     19                     20                     21
                      A                      A                      A
 Frequencies --    855.4249               872.2625               888.7814
 Red. masses --      2.3791                 1.6598                 1.4084
 Frc consts  --      1.0257                 0.7441                 0.6555
 IR Inten    --      4.8734                 2.1797                 0.8681

                     22                     23                     24
                      A                      A                      A
 Frequencies --    905.6936               938.8997               971.0532
 Red. masses --      2.0637                 1.3451                 1.2324
 Frc consts  --      0.9974                 0.6986                 0.6847
 IR Inten    --      3.1343                 0.9741                 0.0309

                     25                     26                     27
                      A                      A                      A
 Frequencies --   1047.1215              1063.2039              1079.3758
 Red. masses --      2.8881                 2.0006                 1.7716
 Frc consts  --      1.8658                 1.3324                 1.2161
 IR Inten    --      0.2945                 3.0611                11.6946

                     28                     29                     30
                      A                      A                      A
 Frequencies --   1119.3871              1144.6855              1186.6617
 Red. masses --      2.0156                 1.5569                 1.1590
 Frc consts  --      1.4881                 1.2019                 0.9616
 IR Inten    --      4.0964                 1.1396                18.0955

                     31                     32                     33
                      A                      A                      A
 Frequencies --   1197.6882              1240.1739              1260.5446
 Red. masses --      1.3286                 2.3124                 1.4752
 Frc consts  --      1.1229                 2.0955                 1.3811
 IR Inten    --     32.8864               101.8985                 5.0000

                     34                     35                     36
                      A                      A                      A
 Frequencies --   1296.6056              1323.6349              1338.9582
 Red. masses --      2.3945                 1.5151                 1.3296
 Frc consts  --      2.3718                 1.5640                 1.4044
 IR Inten    --     46.2550                 2.3199                 7.4577

                     37                     38                     39
                      A                      A                      A
 Frequencies --   1352.7398              1384.4512              1401.4873
 Red. masses --      1.3539                 2.5201                 1.4842
 Frc consts  --      1.4597                 2.8460                 1.7176
 IR Inten    --      5.9143                21.3870                 0.4252

                     40                     41                     42
                      A                      A                      A
 Frequencies --   1442.0312              1508.2700              1520.9742
 Red. masses --      1.2413                 1.9504                 1.1305
 Frc consts  --      1.5208                 2.6141                 1.5408
 IR Inten    --      0.7548                16.1544                 0.2442

                     43                     44                     45
                      A                      A                      A
 Frequencies --   1529.5777              1530.2314              1540.7290
 Red. masses --      1.0938                 1.1096                 2.2907
 Frc consts  --      1.5077                 1.5308                 3.2039
 IR Inten    --      9.9378                 1.6360                61.1422

                     46                     47                     48
                      A                      A                      A
 Frequencies --   1544.7922              1644.2203              1675.5964
 Red. masses --      1.1344                 5.7318                 5.9881
 Frc consts  --      1.5950                 9.1299                 9.9056
 IR Inten    --      8.9918                31.4009                 7.7331

                     49                     50                     51
                      A                      A                      A
 Frequencies --   2986.2684              3038.1818              3042.0897
 Red. masses --      1.0724                 1.0645                 1.0374
 Frc consts  --      5.6348                 5.7891                 5.6566
 IR Inten    --     37.2034                12.3499                37.4380

                     52                     53                     54
                      A                      A                      A
 Frequencies --   3065.1998              3079.9771              3107.5639
 Red. masses --      1.0876                 1.0994                 1.1026
 Frc consts  --      6.0207                 6.1448                 6.2737
 IR Inten    --     16.5534                11.0254                57.9523

                     55                     56                     57
                      A                      A                      A
 Frequencies --   3116.2362              3172.8929              3189.0276
 Red. masses --      1.1017                 1.0875                 1.0877
 Frc consts  --      6.3033                 6.4504                 6.5176
 IR Inten    --     36.1564                10.5943                10.3755

                     58                     59                     60
                      A                      A                      A
 Frequencies --   3206.0171              3215.7090              3771.9111
 Red. masses --      1.0931                 1.0958                 1.0653
 Frc consts  --      6.6200                 6.6763                 8.9301
 IR Inten    --     25.9699                12.9530                38.4864

 - Thermochemistry -
 -------------------
 Temperature   298.150 Kelvin.  Pressure   1.00000 Atm.
 Atom     1 has atomic number  6 and mass  12.00000

 Molecular mass:   136.08882 amu.
 Principal axes and moments of inertia in atomic units:
                           1         2         3
     Eigenvalues --   704.257962151.228722691.37866
           X            1.00000  -0.00192   0.00142
           Y            0.00192   0.99999  -0.00412
           Z           -0.00142   0.00412   0.99999
 This molecule is an asymmetric top.
 Rotational symmetry number  1.
 Warning -- assumption of classical behavior for rotation
           may cause significant error
 Rotational temperatures (Kelvin)      0.12299     0.04026     0.03218
 Rotational constants (GHZ):           2.56261     0.83894     0.67056
 Zero-point vibrational energy     499285.2 (Joules/Mol)
                                  119.33202 (Kcal/Mol)
 Warning -- explicit consideration of  14 degrees of freedom as
           vibrations may cause significant error
 Vibrational temperatures:     93.87   132.89   140.28   303.56   353.54
          (Kelvin)            420.92   445.65   474.76   493.78   646.02
                              693.50   782.72   814.28   888.44  1053.96
                             1078.11  1104.08  1126.02  1230.76  1254.99
                             1278.76  1303.09  1350.87  1397.13  1506.57
                             1529.71  1552.98  1610.55  1646.95  1707.34
                             1723.20  1784.33  1813.64  1865.52  1904.41
                             1926.46  1946.29  1991.91  2016.43  2074.76
                             2170.06  2188.34  2200.72  2201.66  2216.76
                             2222.61  2365.66  2410.81  4296.57  4371.26
                             4376.88  4410.13  4431.39  4471.09  4483.56
                             4565.08  4588.29  4612.74  4626.68  5426.93

 Zero-point correction=                           0.190168 (Hartree/Particle)
 Thermal correction to Energy=                    0.199918
 Thermal correction to Enthalpy=                  0.200862
 Thermal correction to Gibbs Free Energy=         0.155052
 Sum of electronic and zero-point Energies=           -425.219317
 Sum of electronic and thermal Energies=              -425.209566
 Sum of electronic and thermal Enthalpies=            -425.208622
 Sum of electronic and thermal Free Energies=         -425.254432

                     E (Thermal)             CV                S
                      KCal/Mol        Cal/Mol-Kelvin    Cal/Mol-Kelvin
 Total                  125.450             37.304             96.415
 Electronic               0.000              0.000              0.000
 Translational            0.889              2.981             40.637
 Rotational               0.889              2.981             29.790
 Vibrational            123.673             31.343             25.988
 Vibration     1          0.597              1.971              4.292
 Vibration     2          0.602              1.955              3.609
 Vibration     3          0.603              1.951              3.504
 Vibration     4          0.643              1.824              2.035
 Vibration     5          0.660              1.770              1.761
 Vibration     6          0.688              1.688              1.459
 Vibration     7          0.699              1.655              1.364
 Vibration     8          0.713              1.616              1.260
 Vibration     9          0.722              1.589              1.197
 Vibration    10          0.808              1.363              0.799
 Vibration    11          0.838              1.290              0.705
 Vibration    12          0.899              1.153              0.557
 Vibration    13          0.922              1.105              0.512
 Vibration    14          0.977              0.995              0.421

 Optimization completed.
    -- Stationary point found.

 1\1\GINC-Q16COPT056\Freq\RB3LYP\6-31G(d)\C9H12O1\HLIU8\27-Jun-2016\0\\
 #N Geom=AllCheck Guess=TCheck SCRF=Check GenChk RB3LYP/6-31G(d) Freq\\
 lig opt\\0,1\C,24.2860518605,-23.9483933108,0.045568526\C,21.464991560
 1,-27.2619570916,-4.2550806875\C,21.9140039067,-26.7422806942,-5.47097
 03284\C,22.5723188327,-25.5158921926,-5.5066566625\C,22.7902020198,-24
 .8049898161,-4.3230515057\C,21.6850494427,-26.5411864454,-3.0820071956
 \C,22.3477437432,-25.3073040393,-3.0844844151\C,22.6073437821,-24.5602
 056306,-1.7922316203\C,24.0483016285,-24.7133977375,-1.2595628579\O,23

 Normal termination of Gaussian 09 at Mon Jun 27 12:35:44 2016.
