 Gaussian 09, Revision D.01,
 Gaussian 09:  AM64L-G09RevD.01 24-Apr-2013

 --------------------------------
 #B3LYP/6-31g* pop=mk iop(6/50=1)
 --------------------------------

 -------
 lig opt
 -------
 Symbolic Z-matrix:
 Charge =  0 Multiplicity = 1

                         Standard orientation:
 ---------------------------------------------------------------------
 Center     Atomic      Atomic             Coordinates (Angstroms)
 Number     Number       Type             X           Y           Z
 ---------------------------------------------------------------------
      1          6           0       -3.758649   -0.263623    0.243076
      2          6           0        2.244297   -1.436772    0.094679
      3          6           0        2.863718   -0.205102    0.316876
      4          6           0        2.130960    0.974460    0.214993
      5          6           0        0.771015    0.926967   -0.104491
      6          6           0        0.888087   -1.470358   -0.227193
      7          6           0        0.123075   -0.301925   -0.332820
      8          6           0       -1.357489   -0.366335   -0.647857
      9          6           0       -2.267980   -0.196443    0.587338
     10          8           0        0.119118    2.132277   -0.179710
     11          1           0       -4.378878   -0.143836    1.138262
     12          1           0       -4.041812    0.524878   -0.465668
     13          1           0       -4.016650   -1.226197   -0.215192
     14          1           0        2.810786   -2.360592    0.167882
     15          1           0        3.920399   -0.159819    0.566798
     16          1           0        2.590417    1.944478    0.378329
     17          1           0        0.400438   -2.426720   -0.405481
     18          1           0       -1.578121   -1.330809   -1.121567
     19          1           0       -1.629937    0.389369   -1.404137
     20          1           0       -2.015362   -0.976909    1.315963
     21          1           0       -2.042709    0.758153    1.082596
     22          1           0       -0.793723    1.984580   -0.467716
 ---------------------------------------------------------------------

 SCF Done:  E(RB3LYP) =  -425.409484186     A.U. after   14 cycles

 The electronic state is 1-A.
 Alpha  occ. eigenvalues --  -19.17392 -10.24226 -10.19709 -10.19081 -10.19015
 Alpha  occ. eigenvalues --  -10.18507 -10.18438 -10.18129 -10.17848 -10.17772
 Alpha  occ. eigenvalues --   -1.05360  -0.84639  -0.79890  -0.74584  -0.73170
 Alpha  occ. eigenvalues --   -0.68121  -0.61119  -0.59770  -0.58863  -0.53310
 Alpha  occ. eigenvalues --   -0.49150  -0.46839  -0.45060  -0.43453  -0.42597
 Alpha  occ. eigenvalues --   -0.41806  -0.39365  -0.38777  -0.38233  -0.37226
 Alpha  occ. eigenvalues --   -0.35095  -0.34548  -0.33608  -0.32604  -0.32334
 Alpha  occ. eigenvalues --   -0.24016  -0.21390
 Alpha virt. eigenvalues --    0.00450   0.01809   0.05579   0.09945   0.11293
 Alpha virt. eigenvalues --    0.12747   0.13969   0.15789   0.16369   0.16649
 Alpha virt. eigenvalues --    0.17155   0.18063   0.18611   0.19009   0.20171

 Mulliken charges:
               1
     1  C   -0.440830
     2  C   -0.130656
     3  C   -0.137854
     4  C   -0.155168
     5  C    0.272097
     6  C   -0.198566
     7  C    0.151953
     8  C   -0.385891
     9  C   -0.248722
    10  O   -0.650473
    11  H    0.149728
    12  H    0.139463
    13  H    0.146179
    14  H    0.123227
    15  H    0.127869
    16  H    0.136590
    17  H    0.120766
    18  H    0.151531
    19  H    0.129777
    20  H    0.148228
    21  H    0.137366
    22  H    0.413384
 Sum of Mulliken charges =   0.00000

 Dipole moment (field-independent basis, Debye):
    X=             -1.4774    Y=             -0.8057    Z=             -0.3023  Tot=              1.7097
 Quadrupole moment (field-independent basis, Debye-Ang):
   XX=            -55.3969   YY=            -60.1234   ZZ=            -62.4535
   XY=             -1.7723   XZ=              1.8556   YZ=             -0.3498

 ESP charges:
               1
     1  C   -0.314499
     2  C   -0.181400
     3  C   -0.091651
     4  C   -0.260770
     5  C    0.338693
     6  C   -0.126409
     7  C   -0.146717
     8  C   -0.049797
     9  C    0.143721
    10  O   -0.568960
    11  H    0.083665
    12  H    0.070090
    13  H    0.074298
    14  H    0.127771
    15  H    0.119597
    16  H    0.168631
    17  H    0.124380
    18  H    0.057365
    19  H    0.014521
    20  H    0.005739
    21  H   -0.018136
    22  H    0.429868
 Sum of ESP charges =   0.00000

 Normal termination of Gaussian 09 at Mon Jun 27 12:38:46 2016.
